# vtk DataFile Version 3.0
STRUCTURED_GRID example
ASCII
DATASET SSTRUCTURED_GRID
DIMENSIONS 2 2 2
POINTS 27
0 0 0
1 0 0
0 1 0
1 1 0
-0.5 -0.5 1
0.5 -0.5 1
-0.5 0.5 1
0.5 0.5 1
CELL_DATA 1
POINT_DATA 8
SCALARS temp short
LOOKUP_TABLE default
103 3 10 7 29 25 80 8
